 Entering Gaussian System, Link 0=g09
 Initial command:
 /usr/local/shared/gaussian/amd64_sse4/09-E01/g09/l1.exe "/scratch/rk582/Gau-1685186.inp" -scrdir="/scratch/rk582/"
 Entering Link 1 = /usr/local/shared/gaussian/amd64_sse4/09-E01/g09/l1.exe PID=   1685188.
  
 Copyright (c) 1988,1990,1992,1993,1995,1998,2003,2009,2015,
            Gaussian, Inc.  All Rights Reserved.
  
 This is part of the Gaussian(R) 09 program.  It is based on
 the Gaussian(R) 03 system (copyright 2003, Gaussian, Inc.),
 the Gaussian(R) 98 system (copyright 1998, Gaussian, Inc.),
 the Gaussian(R) 94 system (copyright 1995, Gaussian, Inc.),
 the Gaussian 92(TM) system (copyright 1992, Gaussian, Inc.),
 the Gaussian 90(TM) system (copyright 1990, Gaussian, Inc.),
 the Gaussian 88(TM) system (copyright 1988, Gaussian, Inc.),
 the Gaussian 86(TM) system (copyright 1986, Carnegie Mellon
 University), and the Gaussian 82(TM) system (copyright 1983,
 Carnegie Mellon University). Gaussian is a federally registered
 trademark of Gaussian, Inc.
  
 This software contains proprietary and confidential information,
 including trade secrets, belonging to Gaussian, Inc.
  
 This software is provided under written license and may be
 used, copied, transmitted, or stored only in accord with that
 written license.
  
 The following legend is applicable only to US Government
 contracts under FAR:
  
                    RESTRICTED RIGHTS LEGEND
  
 Use, reproduction and disclosure by the US Government is
 subject to restrictions as set forth in subparagraphs (a)
 and (c) of the Commercial Computer Software - Restricted
 Rights clause in FAR 52.227-19.
  
 Gaussian, Inc.
 340 Quinnipiac St., Bldg. 40, Wallingford CT 06492
  
  
 ---------------------------------------------------------------
 Warning -- This program may not be used in any manner that
 competes with the business of Gaussian, Inc. or will provide
 assistance to any competitor of Gaussian, Inc.  The licensee
 of this program is prohibited from giving any competitor of
 Gaussian, Inc. access to this program.  By using this program,
 the user acknowledges that Gaussian, Inc. is engaged in the
 business of creating and licensing software in the field of
 computational chemistry and represents and warrants to the
 licensee that it is not a competitor of Gaussian, Inc. and that
 it will not use this program in any manner prohibited above.
 ---------------------------------------------------------------
  

 Cite this work as:
 Gaussian 09, Revision E.01,
 M. J. Frisch, G. W. Trucks, H. B. Schlegel, G. E. Scuseria, 
 M. A. Robb, J. R. Cheeseman, G. Scalmani, V. Barone, B. Mennucci, 
 G. A. Petersson, H. Nakatsuji, M. Caricato, X. Li, H. P. Hratchian, 
 A. F. Izmaylov, J. Bloino, G. Zheng, J. L. Sonnenberg, M. Hada, 
 M. Ehara, K. Toyota, R. Fukuda, J. Hasegawa, M. Ishida, T. Nakajima, 
 Y. Honda, O. Kitao, H. Nakai, T. Vreven, J. A. Montgomery, Jr., 
 J. E. Peralta, F. Ogliaro, M. Bearpark, J. J. Heyd, E. Brothers, 
 K. N. Kudin, V. N. Staroverov, T. Keith, R. Kobayashi, J. Normand, 
 K. Raghavachari, A. Rendell, J. C. Burant, S. S. Iyengar, J. Tomasi, 
 M. Cossi, N. Rega, J. M. Millam, M. Klene, J. E. Knox, J. B. Cross, 
 V. Bakken, C. Adamo, J. Jaramillo, R. Gomperts, R. E. Stratmann, 
 O. Yazyev, A. J. Austin, R. Cammi, C. Pomelli, J. W. Ochterski, 
 R. L. Martin, K. Morokuma, V. G. Zakrzewski, G. A. Voth, 
 P. Salvador, J. J. Dannenberg, S. Dapprich, A. D. Daniels, 
 O. Farkas, J. B. Foresman, J. V. Ortiz, J. Cioslowski, 
 and D. J. Fox, Gaussian, Inc., Wallingford CT, 2013.
 
 ******************************************
 Gaussian 09:  ES64L-G09RevE.01 30-Nov-2015
                 4-Jan-2024 
 ******************************************
 %chk=error.chk
 %mem=2000MB
 %nprocshared=4
 Will use up to    4 processors via shared memory.
 ----------------------
 #P PM6 opt(maxcycle=3)
 ----------------------
 1/6=3,14=-1,18=20,19=15,26=1,38=1/1,3;
 2/9=110,12=2,17=6,18=5,40=1/2;
 3/5=2,16=1,25=1,41=3900000,71=1/1,2,3;
 4/35=1/1;
 5/5=2,35=1,38=5/2;
 6/7=2,8=2,9=2,10=2,28=1/1;
 7//1,2,3,16;
 1/6=3,14=-1,18=20,19=15,26=1/3(2);
 2/9=110/2;
 99//99;
 2/9=110/2;
 3/5=2,16=1,25=1,41=3900000,71=1,135=20/1,2,3;
 4/5=5,16=3,35=1/1;
 5/5=2,35=1,38=5/2;
 7//1,2,3,16;
 1/6=3,14=-1,18=20,19=15,26=1/3(-5);
 2/9=110/2;
 6/7=2,8=2,9=2,10=2,19=2,28=1/1;
 99/9=1/99;
 Leave Link    1 at Thu Jan  4 17:26:18 2024, MaxMem=   262144000 cpu:         0.1
 (Enter /usr/local/shared/gaussian/amd64_sse4/09-E01/g09/l101.exe)
 ---------------------------
 L9999 error producing input
 ---------------------------
 Symbolic Z-matrix:
 Charge =  0 Multiplicity = 1
 O                     0.        0.        0. 
 H                     1.        0.        0. 
 H                     0.        1.        0. 
 
 NAtoms=      3 NQM=        3 NQMF=       0 NMMI=      0 NMMIF=      0
                NMic=       0 NMicF=      0.
                    Isotopes and Nuclear Properties:
 (Nuclear quadrupole moments (NQMom) in fm**2, nuclear magnetic moments (NMagM)
  in nuclear magnetons)

  Atom         1           2           3
 IAtWgt=          16           1           1
 AtmWgt=  15.9949146   1.0078250   1.0078250
 NucSpn=           0           1           1
 AtZEff=   0.0000000   0.0000000   0.0000000
 NQMom=    0.0000000   0.0000000   0.0000000
 NMagM=    0.0000000   2.7928460   2.7928460
 AtZNuc=   8.0000000   1.0000000   1.0000000
 Leave Link  101 at Thu Jan  4 17:26:18 2024, MaxMem=   262144000 cpu:         0.3
 (Enter /usr/local/shared/gaussian/amd64_sse4/09-E01/g09/l103.exe)

 GradGradGradGradGradGradGradGradGradGradGradGradGradGradGradGradGradGrad
 Berny optimization.
 Initialization pass.
                           ----------------------------
                           !    Initial Parameters    !
                           ! (Angstroms and Degrees)  !
 --------------------------                            --------------------------
 ! Name  Definition              Value          Derivative Info.                !
 --------------------------------------------------------------------------------
 ! R1    R(1,2)                  1.0            estimate D2E/DX2                !
 ! R2    R(1,3)                  1.0            estimate D2E/DX2                !
 ! A1    A(2,1,3)               90.0            estimate D2E/DX2                !
 --------------------------------------------------------------------------------
 Trust Radius=3.00D-01 FncErr=1.00D-07 GrdErr=1.00D-07
 Number of steps in this run=      3 maximum allowed number of steps=    100.
 GradGradGradGradGradGradGradGradGradGradGradGradGradGradGradGradGradGrad

 Leave Link  103 at Thu Jan  4 17:26:18 2024, MaxMem=   262144000 cpu:         0.1
 (Enter /usr/local/shared/gaussian/amd64_sse4/09-E01/g09/l202.exe)
                          Input orientation:                          
 ---------------------------------------------------------------------
 Center     Atomic      Atomic             Coordinates (Angstroms)
 Number     Number       Type             X           Y           Z
 ---------------------------------------------------------------------
      1          8           0        0.000000    0.000000    0.000000
      2          1           0        1.000000    0.000000    0.000000
      3          1           0        0.000000    1.000000    0.000000
 ---------------------------------------------------------------------
                    Distance matrix (angstroms):
                    1          2          3
     1  O    0.000000
     2  H    1.000000   0.000000
     3  H    1.000000   1.414214   0.000000
 Stoichiometry    H2O
 Framework group  C2V[C2(O),SGV(H2)]
 Deg. of freedom     2
 Full point group                 C2V     NOp   4
 Largest Abelian subgroup         C2V     NOp   4
 Largest concise Abelian subgroup C2      NOp   2
                         Standard orientation:                         
 ---------------------------------------------------------------------
 Center     Atomic      Atomic             Coordinates (Angstroms)
 Number     Number       Type             X           Y           Z
 ---------------------------------------------------------------------
      1          8           0       -0.000000   -0.000000    0.141421
      2          1           0       -0.000000    0.707107   -0.565685
      3          1           0       -0.000000   -0.707107   -0.565685
 ---------------------------------------------------------------------
 Rotational constants (GHZ):    564.6475607    501.4551003    265.5892435
 Leave Link  202 at Thu Jan  4 17:26:18 2024, MaxMem=   262144000 cpu:         0.0
 (Enter /usr/local/shared/gaussian/amd64_sse4/09-E01/g09/l301.exe)
 Standard basis: VSTO-6G (5D, 7F)
 Ernie: Thresh=  0.10000D-02 Tol=  0.10000D-05 Strict=F.
  NNHCO=     0 NNPyr=     0 NCTC=     0               EPep=         0.000000000
    EC=         4.503301610  ECS=         0.466568736   EG=         0.001767082
   EHC=         0.000390625  EAt=       -11.378367803  AtH=         0.260972954
 EPDDG=         0.000000000  ECC=         4.972028054 EAtT=        11.639340758
 There are     3 symmetry adapted cartesian basis functions of A1  symmetry.
 There are     0 symmetry adapted cartesian basis functions of A2  symmetry.
 There are     1 symmetry adapted cartesian basis functions of B1  symmetry.
 There are     2 symmetry adapted cartesian basis functions of B2  symmetry.
 There are     3 symmetry adapted basis functions of A1  symmetry.
 There are     0 symmetry adapted basis functions of A2  symmetry.
 There are     1 symmetry adapted basis functions of B1  symmetry.
 There are     2 symmetry adapted basis functions of B2  symmetry.
     6 basis functions,    36 primitive gaussians,     6 cartesian basis functions
     4 alpha electrons        4 beta electrons
       nuclear repulsion energy        16.6113688116 Hartrees.
 IExCor=    0 DFT=F Ex=HF Corr=None ExCW=0 ScaHFX=  1.000000
 ScaDFX=  1.000000  1.000000  1.000000  1.000000 ScalE2=  1.000000  1.000000
 IRadAn=      0 IRanWt=     -1 IRanGd=            0 ICorTp=0 IEmpDi=  4
 Integral buffers will be    131072 words long.
 Regular integral format.
 Two-electron integral symmetry is turned off.
 Leave Link  301 at Thu Jan  4 17:26:18 2024, MaxMem=   262144000 cpu:         0.2
 (Enter /usr/local/shared/gaussian/amd64_sse4/09-E01/g09/l302.exe)
 Do NDO integrals.
 NPDir=0 NMtPBC=     1 NCelOv=     1 NCel=       1 NClECP=     1 NCelD=      1
         NCelK=      1 NCelE2=     1 NClLst=     1 CellRange=     0.0.
 One-electron integrals computed using PRISM.
 NBasis=     6 RedAO= T EigKep=  1.00D+00  NBF=     3     0     1     2
 NBsUse=     6 1.00D-06 EigRej= -1.00D+00 NBFU=     3     0     1     2
 Leave Link  302 at Thu Jan  4 17:26:18 2024, MaxMem=   262144000 cpu:         0.3
 (Enter /usr/local/shared/gaussian/amd64_sse4/09-E01/g09/l303.exe)
 DipDrv:  MaxL=1.
 Leave Link  303 at Thu Jan  4 17:26:19 2024, MaxMem=   262144000 cpu:         0.1
 (Enter /usr/local/shared/gaussian/amd64_sse4/09-E01/g09/l401.exe)
 Simple Huckel Guess.
 JPrj=0 DoOrth=F DoCkMO=F.
 Initial guess orbital symmetries:
       Occupied  (A1) (B2) (A1) (B1)
       Virtual   (B2) (A1)
 The electronic state of the initial guess is 1-A1.
 Leave Link  401 at Thu Jan  4 17:26:19 2024, MaxMem=   262144000 cpu:         0.5
 (Enter /usr/local/shared/gaussian/amd64_sse4/09-E01/g09/l502.exe)
 Closed shell SCF:
 Using DIIS extrapolation, IDIIS=  1040.
 Overlap will be assumed to be unity.
 Two-electron integral symmetry not used.
 Keep J ints in memory in canonical form, NReq=882361.
 IVT=       79034 IEndB=       79034 NGot=   262144000 MDV=   262064889
 LenX=   262064889 LenY=   262064007
 Requested convergence on RMS density matrix=1.00D-08 within 128 cycles.
 Requested convergence on MAX density matrix=1.00D-06.
 Requested convergence on             energy=1.00D-06.
 No special actions if energy rises.
 FoFCou: FMM=F IPFlag=           0 FMFlag=           0 FMFlg1=           0
         NFxFlg=           0 DoJE=F BraDBF=F KetDBF=F FulRan=T
         wScrn=  0.000000 ICntrl=     600 IOpCl=  2 I1Cent=           0 NGrid=           0
         NMat0=    1 NMatS0=     12 NMatT0=    0 NMatD0=    1 NMtDS0=    0 NMtDT0=    0
 Symmetry not used in FoFCou.

 Cycle   1  Pass 1  IDiag  1:
 E= 0.863458835721076E-02
 DIIS: error= 5.12D-02 at cycle   1 NSaved=   1.
 NSaved= 1 IEnMin= 1 EnMin= 0.863458835721076E-02 IErMin= 1 ErrMin= 5.12D-02
 ErrMax= 5.12D-02  0.00D+00 EMaxC= 1.00D-01 BMatC= 2.54D-02 BMatP= 2.54D-02
 IDIUse=3 WtCom= 4.88D-01 WtEn= 5.12D-01
 Coeff-Com:  0.100D+01
 Coeff-En:   0.100D+01
 Coeff:      0.100D+01
 GapD=    2.000 DampG=2.000 DampE=0.500 DampFc=1.0000 IDamp=-1.
 RMSDP=3.82D-02 MaxDP=1.33D-01              OVMax= 0.00D+00

 Cycle   2  Pass 1  IDiag  1:
 E=-0.608239134253949E-01 Delta-E=       -0.069458501783 Rises=F Damp=F
 DIIS: error= 1.71D-02 at cycle   2 NSaved=   2.
 NSaved= 2 IEnMin= 2 EnMin=-0.608239134253949E-01 IErMin= 2 ErrMin= 1.71D-02
 ErrMax= 1.71D-02  0.00D+00 EMaxC= 1.00D-01 BMatC= 3.67D-03 BMatP= 2.54D-02
 IDIUse=3 WtCom= 8.29D-01 WtEn= 1.71D-01
 Coeff-Com: -0.361D+00 0.136D+01
 Coeff-En:   0.000D+00 0.100D+01
 Coeff:     -0.299D+00 0.130D+01
 RMSDP=2.35D-02 MaxDP=6.08D-02 DE=-6.95D-02 OVMax= 0.00D+00

 Cycle   3  Pass 1  IDiag  3:
 E=-0.771709925861117E-01 Delta-E=       -0.016347079161 Rises=F Damp=F
 DIIS: error= 6.17D-03 at cycle   3 NSaved=   3.
 NSaved= 3 IEnMin= 3 EnMin=-0.771709925861117E-01 IErMin= 3 ErrMin= 6.17D-03
 ErrMax= 6.17D-03  0.00D+00 EMaxC= 1.00D-01 BMatC= 5.15D-04 BMatP= 3.67D-03
 IDIUse=3 WtCom= 9.38D-01 WtEn= 6.17D-02
 Coeff-Com:  0.206D+00-0.110D+01 0.190D+01
 Coeff-En:   0.000D+00 0.000D+00 0.100D+01
 Coeff:      0.194D+00-0.103D+01 0.184D+01
 Fock symm off for IB=4 I1=    1 I=    5 J=    3 Cut=1.00D-07 Err=4.11D-02
 Fock matrix is not symmetric: symmetry in diagonalization turned off.
 Gap=     0.565 Goal=   None    Shift=    0.000
 RMSDP=1.48D-02 MaxDP=4.79D-02 DE=-1.63D-02 OVMax= 5.97D-02

 Cycle   4  Pass 1  IDiag  3:
 E=-0.801385860011621E-01 Delta-E=       -0.002967593415 Rises=F Damp=F
 DIIS: error= 4.93D-04 at cycle   4 NSaved=   4.
 NSaved= 4 IEnMin= 4 EnMin=-0.801385860011621E-01 IErMin= 4 ErrMin= 4.93D-04
 ErrMax= 4.93D-04  0.00D+00 EMaxC= 1.00D-01 BMatC= 2.42D-06 BMatP= 5.15D-04
 IDIUse=3 WtCom= 9.95D-01 WtEn= 4.93D-03
 Coeff-Com: -0.483D-01 0.311D+00-0.598D+00 0.134D+01
 Coeff-En:   0.000D+00 0.000D+00 0.000D+00 0.100D+01
 Coeff:     -0.481D-01 0.310D+00-0.595D+00 0.133D+01
 Gap=     0.566 Goal=   None    Shift=    0.000
 RMSDP=5.72D-04 MaxDP=2.14D-03 DE=-2.97D-03 OVMax= 2.04D-03

 Cycle   5  Pass 1  IDiag  3:
 E=-0.801466033740326E-01 Delta-E=       -0.000008017373 Rises=F Damp=F
 DIIS: error= 8.08D-05 at cycle   5 NSaved=   5.
 NSaved= 5 IEnMin= 5 EnMin=-0.801466033740326E-01 IErMin= 5 ErrMin= 8.08D-05
 ErrMax= 8.08D-05  0.00D+00 EMaxC= 1.00D-01 BMatC= 7.11D-08 BMatP= 2.42D-06
 IDIUse=1 WtCom= 1.00D+00 WtEn= 0.00D+00
 Coeff-Com:  0.405D-02-0.334D-01 0.577D-01-0.219D+00 0.119D+01
 Coeff:      0.405D-02-0.334D-01 0.577D-01-0.219D+00 0.119D+01
 Gap=     0.566 Goal=   None    Shift=    0.000
 RMSDP=1.99D-04 MaxDP=6.67D-04 DE=-8.02D-06 OVMax= 8.25D-04

 Cycle   6  Pass 1  IDiag  3:
 E=-0.801469580987764E-01 Delta-E=       -0.000000354725 Rises=F Damp=F
 DIIS: error= 1.71D-05 at cycle   6 NSaved=   6.
 NSaved= 6 IEnMin= 6 EnMin=-0.801469580987764E-01 IErMin= 6 ErrMin= 1.71D-05
 ErrMax= 1.71D-05  0.00D+00 EMaxC= 1.00D-01 BMatC= 3.43D-09 BMatP= 7.11D-08
 IDIUse=1 WtCom= 1.00D+00 WtEn= 0.00D+00
 Large coefficients: NSaved=  6 BigCof=    0.00 CofMax=   10.00 Det=-5.42D-23
 Inversion failed.  Reducing to  5 matrices.
 Coeff-Com: -0.101D-03 0.211D-02-0.167D-01 0.720D-01 0.943D+00
 Coeff:     -0.101D-03 0.211D-02-0.167D-01 0.720D-01 0.943D+00
 Gap=     0.566 Goal=   None    Shift=    0.000
 RMSDP=3.35D-05 MaxDP=9.82D-05 DE=-3.55D-07 OVMax= 1.28D-04

 Cycle   7  Pass 1  IDiag  3:
 E=-0.801469732457427E-01 Delta-E=       -0.000000015147 Rises=F Damp=F
 DIIS: error= 7.15D-07 at cycle   7 NSaved=   6.
 NSaved= 6 IEnMin= 6 EnMin=-0.801469732457427E-01 IErMin= 6 ErrMin= 7.15D-07
 ErrMax= 7.15D-07  0.00D+00 EMaxC= 1.00D-01 BMatC= 6.19D-12 BMatP= 3.43D-09
 IDIUse=1 WtCom= 1.00D+00 WtEn= 0.00D+00
 Large coefficients: NSaved=  6 BigCof=    0.00 CofMax=   10.00 Det= 2.05D-24
 Inversion failed.  Reducing to  5 matrices.
 Coeff-Com:  0.162D-04 0.104D-02-0.904D-02 0.717D-02 0.100D+01
 Coeff:      0.162D-04 0.104D-02-0.904D-02 0.717D-02 0.100D+01
 Gap=     0.566 Goal=   None    Shift=    0.000
 RMSDP=1.00D-06 MaxDP=2.24D-06 DE=-1.51D-08 OVMax= 3.44D-06

 Cycle   8  Pass 1  IDiag  3:
 E=-0.801469732641138E-01 Delta-E=       -0.000000000018 Rises=F Damp=F
 DIIS: error= 1.26D-08 at cycle   8 NSaved=   6.
 NSaved= 6 IEnMin= 6 EnMin=-0.801469732641138E-01 IErMin= 6 ErrMin= 1.26D-08
 ErrMax= 1.26D-08  0.00D+00 EMaxC= 1.00D-01 BMatC= 1.95D-15 BMatP= 6.19D-12
 IDIUse=1 WtCom= 1.00D+00 WtEn= 0.00D+00
 Large coefficients: NSaved=  6 BigCof=    0.00 CofMax=   10.00 Det= 1.04D-27
 Inversion failed.  Reducing to  5 matrices.
 Coeff-Com:  0.225D-05 0.435D-04 0.963D-03 0.330D-01 0.966D+00
 Coeff:      0.225D-05 0.435D-04 0.963D-03 0.330D-01 0.966D+00
 Gap=     0.566 Goal=   None    Shift=    0.000
 RMSDP=1.26D-08 MaxDP=2.85D-08 DE=-1.84D-11 OVMax= 4.21D-08

 Cycle   9  Pass 1  IDiag  3:
 E=-0.801469732641067E-01 Delta-E=        0.000000000000 Rises=F Damp=F
 DIIS: error= 1.67D-10 at cycle   9 NSaved=   6.
 NSaved= 6 IEnMin= 5 EnMin=-0.801469732641138E-01 IErMin= 6 ErrMin= 1.67D-10
 ErrMax= 1.67D-10  0.00D+00 EMaxC= 1.00D-01 BMatC= 2.96D-19 BMatP= 1.95D-15
 IDIUse=1 WtCom= 1.00D+00 WtEn= 0.00D+00
 Large coefficients: NSaved=  6 BigCof=    0.00 CofMax=   10.00 Det=-1.81D-31
 Inversion failed.  Reducing to  5 matrices.
 Large coefficients: NSaved=  5 BigCof=    0.00 CofMax=   10.00 Det=-2.89D-23
 Inversion failed.  Reducing to  4 matrices.
 Coeff-Com:  0.172D-04 0.520D-03 0.221D-01 0.977D+00
 Coeff:      0.172D-04 0.520D-03 0.221D-01 0.977D+00
 Gap=     0.566 Goal=   None    Shift=    0.000
 RMSDP=2.72D-10 MaxDP=7.90D-10 DE= 7.11D-15 OVMax= 1.07D-09

 Cycle  10  Pass 2  IDiag  1:
 SCF Done:  E(RPM6) = -0.801469732641E-01 A.U. after   10 cycles
            NFock=  9  Conv=0.27D-09     -V/T= 0.9779
 KE=-3.624839108244D+00 PE=-2.433722877439D+01 EE= 1.127055209773D+01
 Leave Link  502 at Thu Jan  4 17:26:19 2024, MaxMem=   262144000 cpu:         0.3
 (Enter /usr/local/shared/gaussian/amd64_sse4/09-E01/g09/l601.exe)
 Copying SCF densities to generalized density rwf, IOpCl= 0 IROHF=0.

 **********************************************************************

            Population analysis using the SCF density.

 **********************************************************************

 Orbital symmetries:
       Occupied  (A1) (B2) (A1) (B1)
       Virtual   (A1) (B2)
 The electronic state is 1-A1.
 Alpha  occ. eigenvalues --   -1.10327  -0.63379  -0.54950  -0.42393
 Alpha virt. eigenvalues --    0.14214   0.18992
          Condensed to atoms (all electrons):
               1          2          3
     1  O    6.575646   0.000000   0.000000
     2  H    0.000000   0.712177   0.000000
     3  H    0.000000   0.000000   0.712177
 Mulliken charges:
               1
     1  O   -0.575646
     2  H    0.287823
     3  H    0.287823
 Sum of Mulliken charges =  -0.00000
 Mulliken charges with hydrogens summed into heavy atoms:
               1
     1  O   -0.000000
 Charge=             -0.0000 electrons
 Dipole moment (field-independent basis, Debye):
    X=             -0.0000    Y=              0.0000    Z=             -2.3400  Tot=              2.3400
 N-N= 1.661136881164D+01 E-N=-2.433722877456D+01  KE=-3.624839108244D+00
 Symmetry A1   KE=-2.428473965309D+00
 Symmetry A2   KE= 0.000000000000D+00
 Symmetry B1   KE=-3.485444155483D-01
 Symmetry B2   KE=-8.478207273866D-01
 Leave Link  601 at Thu Jan  4 17:26:19 2024, MaxMem=   262144000 cpu:         0.1
 (Enter /usr/local/shared/gaussian/amd64_sse4/09-E01/g09/l701.exe)
 Compute integral first derivatives.
 ... and contract with generalized density number  0.
 Leave Link  701 at Thu Jan  4 17:26:20 2024, MaxMem=   262144000 cpu:         0.2
 (Enter /usr/local/shared/gaussian/amd64_sse4/09-E01/g09/l702.exe)
 L702 exits ... SP integral derivatives will be done elsewhere.
 Leave Link  702 at Thu Jan  4 17:26:20 2024, MaxMem=   262144000 cpu:         0.1
 (Enter /usr/local/shared/gaussian/amd64_sse4/09-E01/g09/l703.exe)
 Compute integral first derivatives, UseDBF=F ICtDFT=           0.
 Integral derivatives from FoFJK, PRISM(SPDF).
 Calling FoFJK, ICntrl=      2127 FMM=F ISym2X=1 I1Cent= 0 IOpClX= 0 NMat=1 NMatS=1 NMatT=0.
 FoFJK:  IHMeth=40 ICntrl=    2127 DoSepK=F KAlg= 0 I1Cent=   0 FoldK=F
 IRaf=         0 NMat=   1 IRICut=       1 DoRegI=T DoRafI=F ISym2E= 1.
 FoFCou: FMM=F IPFlag=           0 FMFlag=      100000 FMFlg1=         800
         NFxFlg=           0 DoJE=F BraDBF=F KetDBF=F FulRan=T
         wScrn=  0.000000 ICntrl=    2127 IOpCl=  0 I1Cent=           0 NGrid=           0
         NMat0=    1 NMatS0=      1 NMatT0=    0 NMatD0=    1 NMtDS0=    0 NMtDT0=    0
 Symmetry not used in FoFCou.
 Leave Link  703 at Thu Jan  4 17:26:20 2024, MaxMem=   262144000 cpu:         0.2
 (Enter /usr/local/shared/gaussian/amd64_sse4/09-E01/g09/l716.exe)
 Dipole        =-5.63464635D-17 0.00000000D+00-9.20617628D-01
 ***** Axes restored to original set *****
 -------------------------------------------------------------------
 Center     Atomic                   Forces (Hartrees/Bohr)
 Number     Number              X              Y              Z
 -------------------------------------------------------------------
      1        8           0.027550214    0.027550214    0.000000000
      2        1          -0.006716656   -0.020833558   -0.000000000
      3        1          -0.020833558   -0.006716656   -0.000000000
 -------------------------------------------------------------------
 Cartesian Forces:  Max     0.027550214 RMS     0.016587578
 Leave Link  716 at Thu Jan  4 17:26:20 2024, MaxMem=   262144000 cpu:         0.1
 (Enter /usr/local/shared/gaussian/amd64_sse4/09-E01/g09/l103.exe)

 GradGradGradGradGradGradGradGradGradGradGradGradGradGradGradGradGradGrad
 Berny optimization.
 FormGI is forming the generalized inverse of G from B-inverse, IUseBI=4.
 Internal  Forces:  Max     0.039369719 RMS     0.023382341
 Search for a local minimum.
 Step number   1 out of a maximum of    3
 All quantities printed in internal units (Hartrees-Bohrs-Radians)
 RMS Force = .23382D-01 SwitMx=.10000D-02 MixMth= 1
 Mixed Optimization -- RFO/linear search
 Second derivative matrix not updated -- first step.
 The second derivative matrix:
                          R1        R2        A1
           R1           0.47688
           R2           0.00000   0.47688
           A1           0.00000   0.00000   0.16000
 ITU=  0
     Eigenvalues ---    0.16000   0.47688   0.47688
 RFO step:  Lambda=-9.33867757D-03 EMin= 1.60000000D-01
 Linear search not attempted -- first point.
 Iteration  1 RMS(Cart)=  0.12140468 RMS(Int)=  0.02007635
 Iteration  2 RMS(Cart)=  0.01687584 RMS(Int)=  0.00021893
 Iteration  3 RMS(Cart)=  0.00022801 RMS(Int)=  0.00000001
 Iteration  4 RMS(Cart)=  0.00000001 RMS(Int)=  0.00000000
 ITry= 1 IFail=0 DXMaxC= 1.36D-01 DCOld= 1.00D+10 DXMaxT= 3.00D-01 DXLimC= 3.00D+00 Rises=F
 ClnCor:  largest displacement from symmetrization is 1.11D-15 for atom     3.
 Variable       Old X    -DE/DX   Delta X   Delta X   Delta X     New X
                                 (Linear)    (Quad)   (Total)
    R1        1.88973  -0.00672   0.00000  -0.01381  -0.01381   1.87591
    R2        1.88973  -0.00672   0.00000  -0.01381  -0.01381   1.87591
    A1        1.57080   0.03937   0.00000   0.23249   0.23249   1.80329
         Item               Value     Threshold  Converged?
 Maximum Force            0.039370     0.000450     NO 
 RMS     Force            0.023382     0.000300     NO 
 Maximum Displacement     0.136226     0.001800     NO 
 RMS     Displacement     0.137080     0.001200     NO 
 Predicted change in Energy=-4.923506D-03
 Lowest energy point so far.  Saving SCF results.
 GradGradGradGradGradGradGradGradGradGradGradGradGradGradGradGradGradGrad

 Leave Link  103 at Thu Jan  4 17:26:20 2024, MaxMem=   262144000 cpu:         0.3
 (Enter /usr/local/shared/gaussian/amd64_sse4/09-E01/g09/l202.exe)
                          Input orientation:                          
 ---------------------------------------------------------------------
 Center     Atomic      Atomic             Coordinates (Angstroms)
 Number     Number       Type             X           Y           Z
 ---------------------------------------------------------------------
      1          8           0        0.043049    0.043049   -0.000000
      2          1           0        1.029039   -0.072087   -0.000000
      3          1           0       -0.072087    1.029039    0.000000
 ---------------------------------------------------------------------
                    Distance matrix (angstroms):
                    1          2          3
     1  O    0.000000
     2  H    0.992690   0.000000
     3  H    0.992690   1.557228   0.000000
 Stoichiometry    H2O
 Framework group  C2V[C2(O),SGV(H2)]
 Deg. of freedom     2
 Full point group                 C2V     NOp   4
 RotChk:  IX=0 Diff= 5.50D-16
 Largest Abelian subgroup         C2V     NOp   4
 Largest concise Abelian subgroup C2      NOp   2
                         Standard orientation:                         
 ---------------------------------------------------------------------
 Center     Atomic      Atomic             Coordinates (Angstroms)
 Number     Number       Type             X           Y           Z
 ---------------------------------------------------------------------
      1          8           0        0.000000   -0.000000    0.123157
      2          1           0       -0.000000    0.778614   -0.492630
      3          1           0       -0.000000   -0.778614   -0.492630
 ---------------------------------------------------------------------
 Rotational constants (GHZ):    744.5371761    413.5782463    265.8840161
 Leave Link  202 at Thu Jan  4 17:26:20 2024, MaxMem=   262144000 cpu:         0.0
 (Enter /usr/local/shared/gaussian/amd64_sse4/09-E01/g09/l301.exe)
 Standard basis: VSTO-6G (5D, 7F)
 Ernie: Thresh=  0.10000D-02 Tol=  0.10000D-05 Strict=F.
  NNHCO=     0 NNPyr=     0 NCTC=     0               EPep=         0.000000000
    EC=         4.497079029  ECS=         0.472537067   EG=         0.001893223
   EHC=         0.000426558  EAt=       -11.378367803  AtH=         0.260972954
 EPDDG=         0.000000000  ECC=         4.971935877 EAtT=        11.639340758
 There are     3 symmetry adapted cartesian basis functions of A1  symmetry.
 There are     0 symmetry adapted cartesian basis functions of A2  symmetry.
 There are     1 symmetry adapted cartesian basis functions of B1  symmetry.
 There are     2 symmetry adapted cartesian basis functions of B2  symmetry.
 There are     3 symmetry adapted basis functions of A1  symmetry.
 There are     0 symmetry adapted basis functions of A2  symmetry.
 There are     1 symmetry adapted basis functions of B1  symmetry.
 There are     2 symmetry adapted basis functions of B2  symmetry.
     6 basis functions,    36 primitive gaussians,     6 cartesian basis functions
     4 alpha electrons        4 beta electrons
       nuclear repulsion energy        16.6112766352 Hartrees.
 IExCor=    0 DFT=F Ex=HF Corr=None ExCW=0 ScaHFX=  1.000000
 ScaDFX=  1.000000  1.000000  1.000000  1.000000 ScalE2=  1.000000  1.000000
 IRadAn=      0 IRanWt=     -1 IRanGd=            0 ICorTp=0 IEmpDi=  4
 Integral buffers will be    131072 words long.
 Regular integral format.
 Two-electron integral symmetry is turned off.
 Leave Link  301 at Thu Jan  4 17:26:20 2024, MaxMem=   262144000 cpu:         0.1
 (Enter /usr/local/shared/gaussian/amd64_sse4/09-E01/g09/l302.exe)
 Do NDO integrals.
 NPDir=0 NMtPBC=     1 NCelOv=     1 NCel=       1 NClECP=     1 NCelD=      1
         NCelK=      1 NCelE2=     1 NClLst=     1 CellRange=     0.0.
 One-electron integrals computed using PRISM.
 NBasis=     6 RedAO= T EigKep=  1.00D+00  NBF=     3     0     1     2
 NBsUse=     6 1.00D-06 EigRej= -1.00D+00 NBFU=     3     0     1     2
 Leave Link  302 at Thu Jan  4 17:26:20 2024, MaxMem=   262144000 cpu:         0.1
 (Enter /usr/local/shared/gaussian/amd64_sse4/09-E01/g09/l303.exe)
 DipDrv:  MaxL=1.
 Leave Link  303 at Thu Jan  4 17:26:20 2024, MaxMem=   262144000 cpu:         0.0
 (Enter /usr/local/shared/gaussian/amd64_sse4/09-E01/g09/l401.exe)
 Initial guess from the checkpoint file:  "error.chk"
 B after Tr=    -0.000000   -0.000000   -0.000000
         Rot=    1.000000   -0.000000   -0.000000   -0.000000 Ang=   0.00 deg.
 Guess basis will be translated and rotated to current coordinates.
 JPrj=0 DoOrth=T DoCkMO=T.
 Initial guess orbital symmetries:
       Occupied  (A1) (B2) (A1) (B1)
       Virtual   (A1) (B2)
 The electronic state of the initial guess is 1-A1.
 Leave Link  401 at Thu Jan  4 17:26:20 2024, MaxMem=   262144000 cpu:         0.1
 (Enter /usr/local/shared/gaussian/amd64_sse4/09-E01/g09/l502.exe)
 Closed shell SCF:
 Using DIIS extrapolation, IDIIS=  1040.
 Overlap will be assumed to be unity.
 Two-electron integral symmetry not used.
 Keep J ints in memory in canonical form, NReq=882361.
 IVT=       79034 IEndB=       79034 NGot=   262144000 MDV=   262064889
 LenX=   262064889 LenY=   262064007
 Requested convergence on RMS density matrix=1.00D-08 within 128 cycles.
 Requested convergence on MAX density matrix=1.00D-06.
 Requested convergence on             energy=1.00D-06.
 No special actions if energy rises.
 FoFCou: FMM=F IPFlag=           0 FMFlag=           0 FMFlg1=           0
         NFxFlg=           0 DoJE=F BraDBF=F KetDBF=F FulRan=T
         wScrn=  0.000000 ICntrl=     600 IOpCl=  2 I1Cent=           0 NGrid=           0
         NMat0=    1 NMatS0=     12 NMatT0=    0 NMatD0=    1 NMtDS0=    0 NMtDT0=    0
 Symmetry not used in FoFCou.

 Cycle   1  Pass 1  IDiag  1:
 E=-0.824597852534730E-01
 DIIS: error= 6.32D-03 at cycle   1 NSaved=   1.
 NSaved= 1 IEnMin= 1 EnMin=-0.824597852534730E-01 IErMin= 1 ErrMin= 6.32D-03
 ErrMax= 6.32D-03  0.00D+00 EMaxC= 1.00D-01 BMatC= 5.55D-04 BMatP= 5.55D-04
 IDIUse=3 WtCom= 9.37D-01 WtEn= 6.32D-02
 Coeff-Com:  0.100D+01
 Coeff-En:   0.100D+01
 Coeff:      0.100D+01
 GapD=    2.000 DampG=2.000 DampE=1.000 DampFc=2.0000 IDamp=-1.
 RMSDP=7.74D-03 MaxDP=2.63D-02              OVMax= 0.00D+00

 Cycle   2  Pass 1  IDiag  3:
 E=-0.846034338406021E-01 Delta-E=       -0.002143648587 Rises=F Damp=F
 DIIS: error= 2.57D-03 at cycle   2 NSaved=   2.
 NSaved= 2 IEnMin= 2 EnMin=-0.846034338406021E-01 IErMin= 2 ErrMin= 2.57D-03
 ErrMax= 2.57D-03  0.00D+00 EMaxC= 1.00D-01 BMatC= 8.96D-05 BMatP= 5.55D-04
 IDIUse=3 WtCom= 9.74D-01 WtEn= 2.57D-02
 Coeff-Com: -0.548D+00 0.155D+01
 Coeff-En:   0.000D+00 0.100D+01
 Coeff:     -0.533D+00 0.153D+01
 Fock symm off for IB=4 I1=    1 I=    5 J=    3 Cut=1.00D-07 Err=1.37D-02
 Fock matrix is not symmetric: symmetry in diagonalization turned off.
 Gap=     0.566 Goal=   None    Shift=    0.000
 RMSDP=5.02D-03 MaxDP=1.75D-02 DE=-2.14D-03 OVMax= 2.06D-02

 Cycle   3  Pass 1  IDiag  3:
 E=-0.850747072956857E-01 Delta-E=       -0.000471273455 Rises=F Damp=F
 DIIS: error= 6.30D-04 at cycle   3 NSaved=   3.
 NSaved= 3 IEnMin= 3 EnMin=-0.850747072956857E-01 IErMin= 3 ErrMin= 6.30D-04
 ErrMax= 6.30D-04  0.00D+00 EMaxC= 1.00D-01 BMatC= 5.43D-06 BMatP= 8.96D-05
 IDIUse=3 WtCom= 9.94D-01 WtEn= 6.30D-03
 Coeff-Com:  0.418D+00-0.129D+01 0.187D+01
 Coeff-En:   0.000D+00 0.000D+00 0.100D+01
 Coeff:      0.415D+00-0.128D+01 0.187D+01
 Gap=     0.566 Goal=   None    Shift=    0.000
 RMSDP=1.52D-03 MaxDP=4.74D-03 DE=-4.71D-04 OVMax= 6.01D-03

 Cycle   4  Pass 1  IDiag  3:
 E=-0.851049911798398E-01 Delta-E=       -0.000030283884 Rises=F Damp=F
 DIIS: error= 2.90D-05 at cycle   4 NSaved=   4.
 NSaved= 4 IEnMin= 4 EnMin=-0.851049911798398E-01 IErMin= 4 ErrMin= 2.90D-05
 ErrMax= 2.90D-05  0.00D+00 EMaxC= 1.00D-01 BMatC= 1.33D-08 BMatP= 5.43D-06
 IDIUse=1 WtCom= 1.00D+00 WtEn= 0.00D+00
 Coeff-Com: -0.704D-01 0.219D+00-0.355D+00 0.121D+01
 Coeff:     -0.704D-01 0.219D+00-0.355D+00 0.121D+01
 Gap=     0.567 Goal=   None    Shift=    0.000
 RMSDP=6.64D-05 MaxDP=2.06D-04 DE=-3.03D-05 OVMax= 2.43D-04

 Cycle   5  Pass 1  IDiag  3:
 E=-0.851050545398202E-01 Delta-E=       -0.000000063360 Rises=F Damp=F
 DIIS: error= 1.28D-06 at cycle   5 NSaved=   5.
 NSaved= 5 IEnMin= 5 EnMin=-0.851050545398202E-01 IErMin= 5 ErrMin= 1.28D-06
 ErrMax= 1.28D-06  0.00D+00 EMaxC= 1.00D-01 BMatC= 1.84D-11 BMatP= 1.33D-08
 IDIUse=1 WtCom= 1.00D+00 WtEn= 0.00D+00
 Coeff-Com: -0.305D-04 0.305D-03-0.140D-02-0.225D-01 0.102D+01
 Coeff:     -0.305D-04 0.305D-03-0.140D-02-0.225D-01 0.102D+01
 Gap=     0.567 Goal=   None    Shift=    0.000
 RMSDP=2.40D-06 MaxDP=6.25D-06 DE=-6.34D-08 OVMax= 7.75D-06

 Cycle   6  Pass 1  IDiag  3:
 E=-0.851050546226304E-01 Delta-E=       -0.000000000083 Rises=F Damp=F
 DIIS: error= 5.06D-09 at cycle   6 NSaved=   6.
 NSaved= 6 IEnMin= 6 EnMin=-0.851050546226304E-01 IErMin= 6 ErrMin= 5.06D-09
 ErrMax= 5.06D-09  0.00D+00 EMaxC= 1.00D-01 BMatC= 3.81D-16 BMatP= 1.84D-11
 IDIUse=1 WtCom= 1.00D+00 WtEn= 0.00D+00
 Large coefficients: NSaved=  6 BigCof=    0.00 CofMax=   10.00 Det= 3.59D-27
 Inversion failed.  Reducing to  5 matrices.
 Coeff-Com: -0.111D-05-0.178D-06 0.515D-03-0.114D-01 0.101D+01
 Coeff:     -0.111D-05-0.178D-06 0.515D-03-0.114D-01 0.101D+01
 Gap=     0.567 Goal=   None    Shift=    0.000
 RMSDP=5.09D-09 MaxDP=1.30D-08 DE=-8.28D-11 OVMax= 1.78D-08

 Cycle   7  Pass 2  IDiag  1:
 SCF Done:  E(RPM6) = -0.851050546226E-01 A.U. after    7 cycles
            NFock=  6  Conv=0.51D-08     -V/T= 0.9765
 KE=-3.617568407886D+00 PE=-2.435043721686D+01 EE= 1.127162393496D+01
 Leave Link  502 at Thu Jan  4 17:26:20 2024, MaxMem=   262144000 cpu:         0.1
 (Enter /usr/local/shared/gaussian/amd64_sse4/09-E01/g09/l701.exe)
 Compute integral first derivatives.
 ... and contract with generalized density number  0.
 Leave Link  701 at Thu Jan  4 17:26:21 2024, MaxMem=   262144000 cpu:         0.1
 (Enter /usr/local/shared/gaussian/amd64_sse4/09-E01/g09/l702.exe)
 L702 exits ... SP integral derivatives will be done elsewhere.
 Leave Link  702 at Thu Jan  4 17:26:21 2024, MaxMem=   262144000 cpu:         0.0
 (Enter /usr/local/shared/gaussian/amd64_sse4/09-E01/g09/l703.exe)
 Compute integral first derivatives, UseDBF=F ICtDFT=           0.
 Integral derivatives from FoFJK, PRISM(SPDF).
 Calling FoFJK, ICntrl=      2127 FMM=F ISym2X=1 I1Cent= 0 IOpClX= 0 NMat=1 NMatS=1 NMatT=0.
 FoFJK:  IHMeth=40 ICntrl=    2127 DoSepK=F KAlg= 0 I1Cent=   0 FoldK=F
 IRaf=         0 NMat=   1 IRICut=       1 DoRegI=T DoRafI=F ISym2E= 1.
 FoFCou: FMM=F IPFlag=           0 FMFlag=      100000 FMFlg1=         800
         NFxFlg=           0 DoJE=F BraDBF=F KetDBF=F FulRan=T
         wScrn=  0.000000 ICntrl=    2127 IOpCl=  0 I1Cent=           0 NGrid=           0
         NMat0=    1 NMatS0=      1 NMatT0=    0 NMatD0=    1 NMtDS0=    0 NMtDT0=    0
 Symmetry not used in FoFCou.
 Leave Link  703 at Thu Jan  4 17:26:21 2024, MaxMem=   262144000 cpu:         0.0
 (Enter /usr/local/shared/gaussian/amd64_sse4/09-E01/g09/l716.exe)
 Dipole        =-5.51909306D-17 0.00000000D+00-8.60248299D-01
 ***** Axes restored to original set *****
 -------------------------------------------------------------------
 Center     Atomic                   Forces (Hartrees/Bohr)
 Number     Number              X              Y              Z
 -------------------------------------------------------------------
      1        8           0.014618386    0.014618386    0.000000000
      2        1          -0.015410479    0.000792093   -0.000000000
      3        1           0.000792093   -0.015410479   -0.000000000
 -------------------------------------------------------------------
 Cartesian Forces:  Max     0.015410479 RMS     0.010020063
 Leave Link  716 at Thu Jan  4 17:26:21 2024, MaxMem=   262144000 cpu:         0.0
 (Enter /usr/local/shared/gaussian/amd64_sse4/09-E01/g09/l103.exe)

 GradGradGradGradGradGradGradGradGradGradGradGradGradGradGradGradGradGrad
 Berny optimization.
 Using GEDIIS/GDIIS optimizer.
 FormGI is forming the generalized inverse of G from B-inverse, IUseBI=4.
 Internal  Forces:  Max     0.015398345 RMS     0.012619317
 Search for a local minimum.
 Step number   2 out of a maximum of    3
 All quantities printed in internal units (Hartrees-Bohrs-Radians)
 RMS Force = .12619D-01 SwitMx=.10000D-02 MixMth= 1
 Mixed Optimization -- RFO/linear search
 Update second derivatives using D2CorX and points    1    2
 DE= -4.96D-03 DEPred=-4.92D-03 R= 1.01D+00
 TightC=F SS=  1.41D+00  RLast= 2.33D-01 DXNew= 5.0454D-01 6.9993D-01
 Trust test= 1.01D+00 RLast= 2.33D-01 DXMaxT set to 5.05D-01
 The second derivative matrix:
                          R1        R2        A1
           R1           0.48086
           R2           0.00398   0.48086
           A1           0.06615   0.06615   0.16913
 ITU=  1  0
 Use linear search instead of GDIIS.
     Eigenvalues ---    0.14349   0.47688   0.51048
 RFO step:  Lambda=-1.15077283D-03 EMin= 1.43487635D-01
 Quartic linear search produced a step of  0.11421.
 Iteration  1 RMS(Cart)=  0.02616219 RMS(Int)=  0.00061927
 Iteration  2 RMS(Cart)=  0.00070468 RMS(Int)=  0.00000018
 Iteration  3 RMS(Cart)=  0.00000012 RMS(Int)=  0.00000000
 ITry= 1 IFail=0 DXMaxC= 2.58D-02 DCOld= 1.00D+10 DXMaxT= 5.05D-01 DXLimC= 3.00D+00 Rises=F
 ClnCor:  largest displacement from symmetrization is 1.79D-15 for atom     3.
 Variable       Old X    -DE/DX   Delta X   Delta X   Delta X     New X
                                 (Linear)    (Quad)   (Total)
    R1        1.87591  -0.01540  -0.00158  -0.03603  -0.03761   1.83830
    R2        1.87591  -0.01540  -0.00158  -0.03603  -0.03761   1.83830
    A1        1.80329   0.00188   0.02655   0.01654   0.04309   1.84638
         Item               Value     Threshold  Converged?
 Maximum Force            0.015398     0.000450     NO 
 RMS     Force            0.012619     0.000300     NO 
 Maximum Displacement     0.025766     0.001800     NO 
 RMS     Displacement     0.026122     0.001200     NO 
 Predicted change in Energy=-6.107328D-04
 Lowest energy point so far.  Saving SCF results.
 GradGradGradGradGradGradGradGradGradGradGradGradGradGradGradGradGradGrad

 Leave Link  103 at Thu Jan  4 17:26:21 2024, MaxMem=   262144000 cpu:         0.0
 (Enter /usr/local/shared/gaussian/amd64_sse4/09-E01/g09/l202.exe)
                          Input orientation:                          
 ---------------------------------------------------------------------
 Center     Atomic      Atomic             Coordinates (Angstroms)
 Number     Number       Type             X           Y           Z
 ---------------------------------------------------------------------
      1          8           0        0.056683    0.056683    0.000000
      2          1           0        1.020251   -0.076934   -0.000000
      3          1           0       -0.076934    1.020251    0.000000
 ---------------------------------------------------------------------
                    Distance matrix (angstroms):
                    1          2          3
     1  O    0.000000
     2  H    0.972788   0.000000
     3  H    0.972788   1.551655   0.000000
 Stoichiometry    H2O
 Framework group  C2V[C2(O),SGV(H2)]
 Deg. of freedom     2
 Full point group                 C2V     NOp   4
 RotChk:  IX=0 Diff= 7.85D-16
 Largest Abelian subgroup         C2V     NOp   4
 Largest concise Abelian subgroup C2      NOp   2
                         Standard orientation:                         
 ---------------------------------------------------------------------
 Center     Atomic      Atomic             Coordinates (Angstroms)
 Number     Number       Type             X           Y           Z
 ---------------------------------------------------------------------
      1          8           0        0.000000    0.000000    0.117373
      2          1           0       -0.000000    0.775827   -0.469491
      3          1           0       -0.000000   -0.775827   -0.469491
 ---------------------------------------------------------------------
 Rotational constants (GHZ):    819.7348044    416.5546508    276.2009687
 Leave Link  202 at Thu Jan  4 17:26:21 2024, MaxMem=   262144000 cpu:         0.0
 (Enter /usr/local/shared/gaussian/amd64_sse4/09-E01/g09/l301.exe)
 Standard basis: VSTO-6G (5D, 7F)
 Ernie: Thresh=  0.10000D-02 Tol=  0.10000D-05 Strict=F.
  NNHCO=     0 NNPyr=     0 NCTC=     0               EPep=         0.000000000
    EC=         4.534495453  ECS=         0.500566211   EG=         0.001828508
   EHC=         0.000543903  EAt=       -11.378367803  AtH=         0.260972954
 EPDDG=         0.000000000  ECC=         5.037434076 EAtT=        11.639340758
 There are     3 symmetry adapted cartesian basis functions of A1  symmetry.
 There are     0 symmetry adapted cartesian basis functions of A2  symmetry.
 There are     1 symmetry adapted cartesian basis functions of B1  symmetry.
 There are     2 symmetry adapted cartesian basis functions of B2  symmetry.
 There are     3 symmetry adapted basis functions of A1  symmetry.
 There are     0 symmetry adapted basis functions of A2  symmetry.
 There are     1 symmetry adapted basis functions of B1  symmetry.
 There are     2 symmetry adapted basis functions of B2  symmetry.
     6 basis functions,    36 primitive gaussians,     6 cartesian basis functions
     4 alpha electrons        4 beta electrons
       nuclear repulsion energy        16.6767748336 Hartrees.
 IExCor=    0 DFT=F Ex=HF Corr=None ExCW=0 ScaHFX=  1.000000
 ScaDFX=  1.000000  1.000000  1.000000  1.000000 ScalE2=  1.000000  1.000000
 IRadAn=      0 IRanWt=     -1 IRanGd=            0 ICorTp=0 IEmpDi=  4
 Integral buffers will be    131072 words long.
 Regular integral format.
 Two-electron integral symmetry is turned off.
 Leave Link  301 at Thu Jan  4 17:26:21 2024, MaxMem=   262144000 cpu:         0.1
 (Enter /usr/local/shared/gaussian/amd64_sse4/09-E01/g09/l302.exe)
 Do NDO integrals.
 NPDir=0 NMtPBC=     1 NCelOv=     1 NCel=       1 NClECP=     1 NCelD=      1
         NCelK=      1 NCelE2=     1 NClLst=     1 CellRange=     0.0.
 One-electron integrals computed using PRISM.
 NBasis=     6 RedAO= T EigKep=  1.00D+00  NBF=     3     0     1     2
 NBsUse=     6 1.00D-06 EigRej= -1.00D+00 NBFU=     3     0     1     2
 Leave Link  302 at Thu Jan  4 17:26:21 2024, MaxMem=   262144000 cpu:         0.1
 (Enter /usr/local/shared/gaussian/amd64_sse4/09-E01/g09/l303.exe)
 DipDrv:  MaxL=1.
 Leave Link  303 at Thu Jan  4 17:26:21 2024, MaxMem=   262144000 cpu:         0.0
 (Enter /usr/local/shared/gaussian/amd64_sse4/09-E01/g09/l401.exe)
 Initial guess from the checkpoint file:  "error.chk"
 B after Tr=     0.000000    0.000000    0.000000
         Rot=    1.000000    0.000000   -0.000000    0.000000 Ang=   0.00 deg.
 Guess basis will be translated and rotated to current coordinates.
 JPrj=0 DoOrth=T DoCkMO=T.
 Initial guess orbital symmetries:
       Occupied  (A1) (B2) (A1) (B1)
       Virtual   (A1) (B2)
 The electronic state of the initial guess is 1-A1.
 Leave Link  401 at Thu Jan  4 17:26:21 2024, MaxMem=   262144000 cpu:         0.1
 (Enter /usr/local/shared/gaussian/amd64_sse4/09-E01/g09/l502.exe)
 Closed shell SCF:
 Using DIIS extrapolation, IDIIS=  1040.
 Overlap will be assumed to be unity.
 Two-electron integral symmetry not used.
 Keep J ints in memory in canonical form, NReq=882361.
 IVT=       79034 IEndB=       79034 NGot=   262144000 MDV=   262064889
 LenX=   262064889 LenY=   262064007
 Requested convergence on RMS density matrix=1.00D-08 within 128 cycles.
 Requested convergence on MAX density matrix=1.00D-06.
 Requested convergence on             energy=1.00D-06.
 No special actions if energy rises.
 FoFCou: FMM=F IPFlag=           0 FMFlag=           0 FMFlg1=           0
         NFxFlg=           0 DoJE=F BraDBF=F KetDBF=F FulRan=T
         wScrn=  0.000000 ICntrl=     600 IOpCl=  2 I1Cent=           0 NGrid=           0
         NMat0=    1 NMatS0=     12 NMatT0=    0 NMatD0=    1 NMtDS0=    0 NMtDT0=    0
 Symmetry not used in FoFCou.

 Cycle   1  Pass 1  IDiag  1:
 E=-0.856048872427806E-01
 DIIS: error= 2.91D-03 at cycle   1 NSaved=   1.
 NSaved= 1 IEnMin= 1 EnMin=-0.856048872427806E-01 IErMin= 1 ErrMin= 2.91D-03
 ErrMax= 2.91D-03  0.00D+00 EMaxC= 1.00D-01 BMatC= 1.05D-04 BMatP= 1.05D-04
 IDIUse=3 WtCom= 9.71D-01 WtEn= 2.91D-02
 Coeff-Com:  0.100D+01
 Coeff-En:   0.100D+01
 Coeff:      0.100D+01
 GapD=    2.000 DampG=2.000 DampE=1.000 DampFc=2.0000 IDamp=-1.
 RMSDP=2.82D-03 MaxDP=6.90D-03              OVMax= 0.00D+00

 Cycle   2  Pass 1  IDiag  3:
 E=-0.859364415948605E-01 Delta-E=       -0.000331554352 Rises=F Damp=F
 DIIS: error= 1.22D-03 at cycle   2 NSaved=   2.
 NSaved= 2 IEnMin= 2 EnMin=-0.859364415948605E-01 IErMin= 2 ErrMin= 1.22D-03
 ErrMax= 1.22D-03  0.00D+00 EMaxC= 1.00D-01 BMatC= 1.70D-05 BMatP= 1.05D-04
 IDIUse=3 WtCom= 9.88D-01 WtEn= 1.22D-02
 Coeff-Com: -0.496D+00 0.150D+01
 Coeff-En:   0.000D+00 0.100D+01
 Coeff:     -0.490D+00 0.149D+01
 Fock symm off for IB=4 I1=    1 I=    5 J=    3 Cut=1.00D-07 Err=5.39D-03
 Fock matrix is not symmetric: symmetry in diagonalization turned off.
 Gap=     0.575 Goal=   None    Shift=    0.000
 RMSDP=1.99D-03 MaxDP=6.20D-03 DE=-3.32D-04 OVMax= 8.11D-03

 Cycle   3  Pass 1  IDiag  3:
 E=-0.860228155229450E-01 Delta-E=       -0.000086373928 Rises=F Damp=F
 DIIS: error= 3.11D-04 at cycle   3 NSaved=   3.
 NSaved= 3 IEnMin= 3 EnMin=-0.860228155229450E-01 IErMin= 3 ErrMin= 3.11D-04
 ErrMax= 3.11D-04  0.00D+00 EMaxC= 1.00D-01 BMatC= 1.44D-06 BMatP= 1.70D-05
 IDIUse=3 WtCom= 9.97D-01 WtEn= 3.11D-03
 Coeff-Com:  0.263D+00-0.104D+01 0.178D+01
 Coeff-En:   0.000D+00 0.000D+00 0.100D+01
 Coeff:      0.262D+00-0.103D+01 0.177D+01
 Gap=     0.575 Goal=   None    Shift=    0.000
 RMSDP=8.76D-04 MaxDP=2.92D-03 DE=-8.64D-05 OVMax= 3.61D-03

 Cycle   4  Pass 1  IDiag  3:
 E=-0.860317986384089E-01 Delta-E=       -0.000008983115 Rises=F Damp=F
 DIIS: error= 2.81D-05 at cycle   4 NSaved=   4.
 NSaved= 4 IEnMin= 4 EnMin=-0.860317986384089E-01 IErMin= 4 ErrMin= 2.81D-05
 ErrMax= 2.81D-05  0.00D+00 EMaxC= 1.00D-01 BMatC= 7.87D-09 BMatP= 1.44D-06
 IDIUse=1 WtCom= 1.00D+00 WtEn= 0.00D+00
 Coeff-Com: -0.103D+00 0.407D+00-0.710D+00 0.141D+01
 Coeff:     -0.103D+00 0.407D+00-0.710D+00 0.141D+01
 Gap=     0.575 Goal=   None    Shift=    0.000
 RMSDP=3.26D-05 MaxDP=1.22D-04 DE=-8.98D-06 OVMax= 1.29D-04

 Cycle   5  Pass 1  IDiag  3:
 E=-0.860318232209103E-01 Delta-E=       -0.000000024583 Rises=F Damp=F
 DIIS: error= 5.51D-07 at cycle   5 NSaved=   5.
 NSaved= 5 IEnMin= 5 EnMin=-0.860318232209103E-01 IErMin= 5 ErrMin= 5.51D-07
 ErrMax= 5.51D-07  0.00D+00 EMaxC= 1.00D-01 BMatC= 5.02D-12 BMatP= 7.87D-09
 IDIUse=1 WtCom= 1.00D+00 WtEn= 0.00D+00
 Coeff-Com:  0.107D-04-0.824D-04-0.107D-02-0.142D-01 0.102D+01
 Coeff:      0.107D-04-0.824D-04-0.107D-02-0.142D-01 0.102D+01
 Gap=     0.575 Goal=   None    Shift=    0.000
 RMSDP=1.38D-06 MaxDP=3.84D-06 DE=-2.46D-08 OVMax= 4.97D-06

 Cycle   6  Pass 1  IDiag  3:
 E=-0.860318232458468E-01 Delta-E=       -0.000000000025 Rises=F Damp=F
 DIIS: error= 3.13D-09 at cycle   6 NSaved=   6.
 NSaved= 6 IEnMin= 6 EnMin=-0.860318232458468E-01 IErMin= 6 ErrMin= 3.13D-09
 ErrMax= 3.13D-09  0.00D+00 EMaxC= 1.00D-01 BMatC= 1.05D-16 BMatP= 5.02D-12
 IDIUse=1 WtCom= 1.00D+00 WtEn= 0.00D+00
 Large coefficients: NSaved=  6 BigCof=    0.00 CofMax=   10.00 Det= 1.64D-27
 Inversion failed.  Reducing to  5 matrices.
 Coeff-Com: -0.242D-06 0.140D-03 0.147D-02-0.113D+00 0.111D+01
 Coeff:     -0.242D-06 0.140D-03 0.147D-02-0.113D+00 0.111D+01
 Gap=     0.575 Goal=   None    Shift=    0.000
 RMSDP=3.60D-09 MaxDP=8.93D-09 DE=-2.49D-11 OVMax= 1.08D-08

 Cycle   7  Pass 2  IDiag  1:
 SCF Done:  E(RPM6) = -0.860318232458E-01 A.U. after    7 cycles
            NFock=  6  Conv=0.36D-08     -V/T= 0.9764
 KE=-3.641634860360D+00 PE=-2.440787765497D+01 EE= 1.128670585845D+01
 Leave Link  502 at Thu Jan  4 17:26:21 2024, MaxMem=   262144000 cpu:         0.1
 (Enter /usr/local/shared/gaussian/amd64_sse4/09-E01/g09/l701.exe)
 Compute integral first derivatives.
 ... and contract with generalized density number  0.
 Leave Link  701 at Thu Jan  4 17:26:21 2024, MaxMem=   262144000 cpu:         0.1
 (Enter /usr/local/shared/gaussian/amd64_sse4/09-E01/g09/l702.exe)
 L702 exits ... SP integral derivatives will be done elsewhere.
 Leave Link  702 at Thu Jan  4 17:26:21 2024, MaxMem=   262144000 cpu:         0.1
 (Enter /usr/local/shared/gaussian/amd64_sse4/09-E01/g09/l703.exe)
 Compute integral first derivatives, UseDBF=F ICtDFT=           0.
 Integral derivatives from FoFJK, PRISM(SPDF).
 Calling FoFJK, ICntrl=      2127 FMM=F ISym2X=1 I1Cent= 0 IOpClX= 0 NMat=1 NMatS=1 NMatT=0.
 FoFJK:  IHMeth=40 ICntrl=    2127 DoSepK=F KAlg= 0 I1Cent=   0 FoldK=F
 IRaf=         0 NMat=   1 IRICut=       1 DoRegI=T DoRafI=F ISym2E= 1.
 FoFCou: FMM=F IPFlag=           0 FMFlag=      100000 FMFlg1=         800
         NFxFlg=           0 DoJE=F BraDBF=F KetDBF=F FulRan=T
         wScrn=  0.000000 ICntrl=    2127 IOpCl=  0 I1Cent=           0 NGrid=           0
         NMat0=    1 NMatS0=      1 NMatT0=    0 NMatD0=    1 NMtDS0=    0 NMtDT0=    0
 Symmetry not used in FoFCou.
 Leave Link  703 at Thu Jan  4 17:26:21 2024, MaxMem=   262144000 cpu:         0.1
 (Enter /usr/local/shared/gaussian/amd64_sse4/09-E01/g09/l716.exe)
 Dipole        =-1.27631661D-17-3.55271368D-15-8.36890288D-01
 ***** Axes restored to original set *****
 -------------------------------------------------------------------
 Center     Atomic                   Forces (Hartrees/Bohr)
 Number     Number              X              Y              Z
 -------------------------------------------------------------------
      1        8           0.006980431    0.006980431    0.000000000
      2        1          -0.008571953    0.001591523   -0.000000000
      3        1           0.001591523   -0.008571953   -0.000000000
 -------------------------------------------------------------------
 Cartesian Forces:  Max     0.008571953 RMS     0.005264931
 Leave Link  716 at Thu Jan  4 17:26:21 2024, MaxMem=   262144000 cpu:         0.0
 (Enter /usr/local/shared/gaussian/amd64_sse4/09-E01/g09/l103.exe)

 GradGradGradGradGradGradGradGradGradGradGradGradGradGradGradGradGradGrad
 Berny optimization.
 Using GEDIIS/GDIIS optimizer.
 FormGI is forming the generalized inverse of G from B-inverse, IUseBI=4.
 Internal  Forces:  Max     0.008709311 RMS     0.007123723
 Search for a local minimum.
 Step number   3 out of a maximum of    3
 All quantities printed in internal units (Hartrees-Bohrs-Radians)
 RMS Force = .71237D-02 SwitMx=.10000D-02 MixMth= 1
 Mixed Optimization -- RFO/linear search
 Update second derivatives using D2CorX and points    1    2    3
 DE= -9.27D-04 DEPred=-6.11D-04 R= 1.52D+00
 TightC=F SS=  1.41D+00  RLast= 6.85D-02 DXNew= 8.4853D-01 2.0536D-01
 Trust test= 1.52D+00 RLast= 6.85D-02 DXMaxT set to 5.05D-01
 The second derivative matrix:
                          R1        R2        A1
           R1           0.37059
           R2          -0.10630   0.37059
           A1           0.07544   0.07544   0.19226
 ITU=  1  1  0
 Use linear search instead of GDIIS.
     Eigenvalues ---    0.11568   0.34087   0.47688
 RFO step:  Lambda=-5.19076443D-05 EMin= 1.15678618D-01
 Quartic linear search produced a step of  1.11450.
 Iteration  1 RMS(Cart)=  0.02798308 RMS(Int)=  0.00053598
 Iteration  2 RMS(Cart)=  0.00059161 RMS(Int)=  0.00000015
 Iteration  3 RMS(Cart)=  0.00000010 RMS(Int)=  0.00000000
 ITry= 1 IFail=0 DXMaxC= 2.44D-02 DCOld= 1.00D+10 DXMaxT= 5.05D-01 DXLimC= 3.00D+00 Rises=F
 ClnCor:  largest displacement from symmetrization is 7.22D-16 for atom     3.
 Variable       Old X    -DE/DX   Delta X   Delta X   Delta X     New X
                                 (Linear)    (Quad)   (Total)
    R1        1.83830  -0.00871  -0.04192  -0.00270  -0.04462   1.79369
    R2        1.83830  -0.00871  -0.04192  -0.00270  -0.04462   1.79369
    A1        1.84638  -0.00073   0.04802  -0.01383   0.03419   1.88057
         Item               Value     Threshold  Converged?
 Maximum Force            0.008709     0.000450     NO 
 RMS     Force            0.007124     0.000300     NO 
 Maximum Displacement     0.024373     0.001800     NO 
 RMS     Displacement     0.028097     0.001200     NO 
 Predicted change in Energy=-3.437487D-04
 Optimization stopped.
    -- Number of steps exceeded,  NStep=   3
    -- Flag reset to prevent archiving.
                           ----------------------------
                           ! Non-Optimized Parameters !
                           ! (Angstroms and Degrees)  !
 --------------------------                            --------------------------
 ! Name  Definition              Value          Derivative Info.                !
 --------------------------------------------------------------------------------
 ! R1    R(1,2)                  0.9492         -DE/DX =   -0.0087              !
 ! R2    R(1,3)                  0.9492         -DE/DX =   -0.0087              !
 ! A1    A(2,1,3)              107.7489         -DE/DX =   -0.0007              !
 --------------------------------------------------------------------------------
 Lowest energy point so far.  Saving SCF results.
 GradGradGradGradGradGradGradGradGradGradGradGradGradGradGradGradGradGrad

 Largest change from initial coordinates is atom    3       0.118 Angstoms.
 Leave Link  103 at Thu Jan  4 17:26:21 2024, MaxMem=   262144000 cpu:         0.0
 (Enter /usr/local/shared/gaussian/amd64_sse4/09-E01/g09/l202.exe)
                          Input orientation:                          
 ---------------------------------------------------------------------
 Center     Atomic      Atomic             Coordinates (Angstroms)
 Number     Number       Type             X           Y           Z
 ---------------------------------------------------------------------
      1          8           0        0.056683    0.056683    0.000000
      2          1           0        1.020251   -0.076934   -0.000000
      3          1           0       -0.076934    1.020251    0.000000
 ---------------------------------------------------------------------
                    Distance matrix (angstroms):
                    1          2          3
     1  O    0.000000
     2  H    0.972788   0.000000
     3  H    0.972788   1.551655   0.000000
 Stoichiometry    H2O
 Framework group  C2V[C2(O),SGV(H2)]
 Deg. of freedom     2
 Full point group                 C2V     NOp   4
 RotChk:  IX=0 Diff= 5.50D-16
 Largest Abelian subgroup         C2V     NOp   4
 Largest concise Abelian subgroup C2      NOp   2
                         Standard orientation:                         
 ---------------------------------------------------------------------
 Center     Atomic      Atomic             Coordinates (Angstroms)
 Number     Number       Type             X           Y           Z
 ---------------------------------------------------------------------
      1          8           0        0.000000    0.000000    0.117373
      2          1           0       -0.000000    0.775827   -0.469491
      3          1           0       -0.000000   -0.775827   -0.469491
 ---------------------------------------------------------------------
 Rotational constants (GHZ):    819.7348044    416.5546508    276.2009687
 Leave Link  202 at Thu Jan  4 17:26:21 2024, MaxMem=   262144000 cpu:         0.0
 (Enter /usr/local/shared/gaussian/amd64_sse4/09-E01/g09/l601.exe)
 Copying SCF densities to generalized density rwf, IOpCl= 0 IROHF=0.

 **********************************************************************

            Population analysis using the SCF density.

 **********************************************************************

 Orbital symmetries:
       Occupied  (A1) (B2) (A1) (B1)
       Virtual   (A1) (B2)
 The electronic state is 1-A1.
 Alpha  occ. eigenvalues --   -1.10107  -0.68339  -0.52136  -0.43224
 Alpha virt. eigenvalues --    0.14303   0.21431
          Condensed to atoms (all electrons):
               1          2          3
     1  O    6.615435   0.000000   0.000000
     2  H    0.000000   0.692283   0.000000
     3  H    0.000000   0.000000   0.692283
 Mulliken charges:
               1
     1  O   -0.615435
     2  H    0.307717
     3  H    0.307717
 Sum of Mulliken charges =  -0.00000
 Mulliken charges with hydrogens summed into heavy atoms:
               1
     1  O   -0.000000
 Charge=             -0.0000 electrons
 Dipole moment (field-independent basis, Debye):
    X=             -0.0000    Y=             -0.0000    Z=             -2.1272  Tot=              2.1272
 N-N= 1.667677483363D+01 E-N=-2.440787764758D+01  KE=-3.641634860360D+00
 Symmetry A1   KE=-2.359597511596D+00
 Symmetry A2   KE= 0.000000000000D+00
 Symmetry B1   KE=-3.486731905941D-01
 Symmetry B2   KE=-9.333641581693D-01
 Leave Link  601 at Thu Jan  4 17:26:21 2024, MaxMem=   262144000 cpu:         0.1
 (Enter /usr/local/shared/gaussian/amd64_sse4/09-E01/g09/l9999.exe)


 THE MORE POWERFUL THE METHOD, THE MORE CATASTROPHIC THE ERRORS.
     -- M.D. KAMEN
 Error termination request processed by link 9999.
 Error termination via Lnk1e in /usr/local/shared/gaussian/amd64_sse4/09-E01/g09/l9999.exe at Thu Jan  4 17:26:21 2024.
 Job cpu time:       0 days  0 hours  0 minutes  4.5 seconds.
 File lengths (MBytes):  RWF=      5 Int=      0 D2E=      0 Chk=      2 Scr=      1
